<?xml version="1.0" encoding="UTF-8"?>

<!-- generated on 2025-09-21 10:09:03 by Eclipse SUMO GUI Version 1.24.0
<sumoConfiguration xmlns:xsi="http://www.w3.org/2001/XMLSchema-instance" xsi:noNamespaceSchemaLocation="http://sumo.dlr.de/xsd/sumoConfiguration.xsd">

    <input>
        <net-file value="sumo_files/intersection.net.xml"/>
        <route-files value="sumo_files/intersection.rou.xml"/>
        <additional-files value="sumo_files/intersection.add.xml"/>
    </input>

    <time>
        <begin value="0"/>
    </time>

    <traci_server>
        <remote-port value="50176"/>
    </traci_server>

    <gui_only>
        <delay value="100"/>
    </gui_only>

</sumoConfiguration>
-->

<detector xmlns:xsi="http://www.w3.org/2001/XMLSchema-instance" xsi:noNamespaceSchemaLocation="http://sumo.dlr.de/xsd/det_e1_file.xsd">
    <interval begin="0.00" end="89.00" id="loop_N_0" nVehContrib="5" flow="202.25" occupancy="2.26" speed="12.46" harmonicMeanSpeed="12.43" length="5.00" nVehEntered="5"/>
    <interval begin="0.00" end="89.00" id="loop_N_1" nVehContrib="1" flow="40.45" occupancy="0.45" speed="12.54" harmonicMeanSpeed="12.54" length="5.00" nVehEntered="1"/>
    <interval begin="0.00" end="89.00" id="loop_S_0" nVehContrib="2" flow="80.90" occupancy="1.02" speed="11.02" harmonicMeanSpeed="11.02" length="5.00" nVehEntered="2"/>
    <interval begin="0.00" end="89.00" id="loop_S_1" nVehContrib="5" flow="202.25" occupancy="2.12" speed="13.30" harmonicMeanSpeed="13.24" length="5.00" nVehEntered="5"/>
    <interval begin="0.00" end="89.00" id="loop_E_0" nVehContrib="2" flow="80.90" occupancy="0.97" speed="11.62" harmonicMeanSpeed="11.61" length="5.00" nVehEntered="2"/>
    <interval begin="0.00" end="89.00" id="loop_E_1" nVehContrib="5" flow="202.25" occupancy="2.11" speed="13.38" harmonicMeanSpeed="13.33" length="5.00" nVehEntered="5"/>
    <interval begin="0.00" end="89.00" id="loop_W_0" nVehContrib="3" flow="121.35" occupancy="1.37" speed="12.35" harmonicMeanSpeed="12.26" length="5.00" nVehEntered="3"/>
    <interval begin="0.00" end="89.00" id="loop_W_1" nVehContrib="5" flow="202.25" occupancy="2.24" speed="12.56" harmonicMeanSpeed="12.55" length="5.00" nVehEntered="5"/>
</detector>
